# vtk DataFile Version 4.0
vtk output
ASCII
DATASET UNSTRUCTURED_GRID
POINTS 3567 float
0.0000000e+00 1.0000000e+01 1.4000000e+01 
0.0000000e+00 9.0000000e+00 1.4000000e+01 
1.0000000e+00 1.0000000e+01 1.4000000e+01 
1.0000000e+00 9.0000000e+00 1.4000000e+01 
0.0000000e+00 8.0000000e+00 1.4000000e+01 
2.0000000e+00 1.0000000e+01 1.4000000e+01 
2.0000000e+00 9.0000000e+00 1.4000000e+01 
1.0000000e+00 8.0000000e+00 1.4000000e+01 
2.0000000e+00 8.0000000e+00 1.4000000e+01 
0.0000000e+00 7.0000000e+00 1.4000000e+01 
3.0000000e+00 1.0000000e+01 1.4000000e+01 
3.0000000e+00 9.0000000e+00 1.4000000e+01 
1.0000000e+00 7.0000000e+00 1.4000000e+01 
3.0000000e+00 8.0000000e+00 1.4000000e+01 
2.0000000e+00 7.0000000e+00 1.4000000e+01 
0.0000000e+00 6.0000000e+00 1.4000000e+01 
4.0000000e+00 1.0000000e+01 1.4000000e+01 
4.0000000e+00 9.0000000e+00 1.4000000e+01 
1.0000000e+00 6.0000000e+00 1.4000000e+01 
3.0000000e+00 7.0000000e+00 1.4000000e+01 
2.0000000e+00 6.0000000e+00 1.4000000e+01 
4.0000000e+00 8.0000000e+00 1.4000000e+01 
0.0000000e+00 5.0000000e+00 1.4000000e+01 
5.0000000e+00 1.0000000e+01 1.4000000e+01 
3.0000000e+00 6.0000000e+00 1.4000000e+01 
4.0000000e+00 7.0000000e+00 1.4000000e+01 
1.0000000e+00 5.0000000e+00 1.4000000e+01 
5.0000000e+00 9.0000000e+00 1.4000000e+01 
2.0000000e+00 5.0000000e+00 1.4000000e+01 
5.0000000e+00 8.0000000e+00 1.4000000e+01 
4.0000000e+00 6.0000000e+00 1.4000000e+01 
3.0000000e+00 5.0000000e+00 1.4000000e+01 
5.0000000e+00 7.0000000e+00 1.4000000e+01 
0.0000000e+00 4.0000000e+00 1.4000000e+01 
6.0000000e+00 1.0000000e+01 1.4000000e+01 
1.0000000e+00 4.0000000e+00 1.4000000e+01 
6.0000000e+00 9.0000000e+00 1.4000000e+01 
2.0000000e+00 4.0000000e+00 1.4000000e+01 
6.0000000e+00 8.0000000e+00 1.4000000e+01 
4.0000000e+00 5.0000000e+00 1.4000000e+01 
5.0000000e+00 6.0000000e+00 1.4000000e+01 
3.0000000e+00 4.0000000e+00 1.4000000e+01 
6.0000000e+00 7.0000000e+00 1.4000000e+01 
0.0000000e+00 3.0000000e+00 1.4000000e+01 
7.0000000e+00 1.0000000e+01 1.4000000e+01 
5.0000000e+00 5.0000000e+00 1.4000000e+01 
1.0000000e+00 3.0000000e+00 1.4000000e+01 
7.0000000e+00 9.0000000e+00 1.4000000e+01 
4.0000000e+00 4.0000000e+00 1.4000000e+01 
6.0000000e+00 6.0000000e+00 1.4000000e+01 
2.0000000e+00 3.0000000e+00 1.4000000e+01 
7.0000000e+00 8.0000000e+00 1.4000000e+01 
3.0000000e+00 3.0000000e+00 1.4000000e+01 
7.0000000e+00 7.0000000e+00 1.4000000e+01 
5.0000000e+00 4.0000000e+00 1.4000000e+01 
6.0000000e+00 5.0000000e+00 1.4000000e+01 
0.0000000e+00 2.0000000e+00 1.4000000e+01 
8.0000000e+00 1.0000000e+01 1.4000000e+01 
1.0000000e+00 2.0000000e+00 1.4000000e+01 
4.0000000e+00 3.0000000e+00 1.4000000e+01 
8.0000000e+00 9.0000000e+00 1.4000000e+01 
7.0000000e+00 6.0000000e+00 1.4000000e+01 
8.0000000e+00 8.0000000e+00 1.4000000e+01 
2.0000000e+00 2.0000000e+00 1.4000000e+01 
6.0000000e+00 4.0000000e+00 1.4000000e+01 
8.0000000e+00 7.0000000e+00 1.4000000e+01 
3.0000000e+00 2.0000000e+00 1.4000000e+01 
5.0000000e+00 3.0000000e+00 1.4000000e+01 
7.0000000e+00 5.0000000e+00 1.4000000e+01 
8.0000000e+00 6.0000000e+00 1.4000000e+01 
4.0000000e+00 2.0000000e+00 1.4000000e+01 
0.0000000e+00 1.0000000e+00 1.4000000e+01 
9.0000000e+00 1.0000000e+01 1.4000000e+01 
1.0000000e+00 1.0000000e+00 1.4000000e+01 
9.0000000e+00 9.0000000e+00 1.4000000e+01 
2.0000000e+00 1.0000000e+00 1.4000000e+01 
6.0000000e+00 3.0000000e+00 1.4000000e+01 
7.0000000e+00 4.0000000e+00 1.4000000e+01 
9.0000000e+00 8.0000000e+00 1.4000000e+01 
8.0000000e+00 5.0000000e+00 1.4000000e+01 
5.0000000e+00 2.0000000e+00 1.4000000e+01 
3.0000000e+00 1.0000000e+00 1.4000000e+01 
9.0000000e+00 7.0000000e+00 1.4000000e+01 
4.0000000e+00 1.0000000e+00 1.4000000e+01 
9.0000000e+00 6.0000000e+00 1.4000000e+01 
7.0000000e+00 3.0000000e+00 1.4000000e+01 
0.0000000e+00 0.0000000e+00 1.4000000e+01 
1.0000000e+01 1.0000000e+01 1.4000000e+01 
6.0000000e+00 2.0000000e+00 1.4000000e+01 
8.0000000e+00 4.0000000e+00 1.4000000e+01 
1.0000000e+01 9.0000000e+00 1.4000000e+01 
0.0000000e+00 0.0000000e+00 1.3000000e+01 
1.0000000e+00 0.0000000e+00 1.4000000e+01 
1.0000000e+00 0.0000000e+00 1.3000000e+01 
1.0000000e+01 8.0000000e+00 1.4000000e+01 
0.0000000e+00 0.0000000e+00 1.2000000e+01 
2.0000000e+00 0.0000000e+00 1.4000000e+01 
1.0000000e+00 0.0000000e+00 1.2000000e+01 
2.0000000e+00 0.0000000e+00 1.3000000e+01 
9.0000000e+00 5.0000000e+00 1.4000000e+01 
5.0000000e+00 1.0000000e+00 1.4000000e+01 
2.0000000e+00 0.0000000e+00 1.2000000e+01 
0.0000000e+00 0.0000000e+00 1.1000000e+01 
3.0000000e+00 0.0000000e+00 1.4000000e+01 
1.0000000e+01 7.0000000e+00 1.4000000e+01 
1.0000000e+00 0.0000000e+00 1.1000000e+01 
3.0000000e+00 0.0000000e+00 1.3000000e+01 
8.0000000e+00 3.0000000e+00 1.4000000e+01 
2.0000000e+00 0.0000000e+00 1.1000000e+01 
3.0000000e+00 0.0000000e+00 1.2000000e+01 
7.0000000e+00 2.0000000e+00 1.4000000e+01 
0.0000000e+00 0.0000000e+00 1.0000000e+01 
4.0000000e+00 0.0000000e+00 1.4000000e+01 
1.0000000e+01 6.0000000e+00 1.4000000e+01 
6.0000000e+00 1.0000000e+00 1.4000000e+01 
1.0000000e+00 0.0000000e+00 1.0000000e+01 
4.0000000e+00 0.0000000e+00 1.3000000e+01 
9.0000000e+00 4.0000000e+00 1.4000000e+01 
3.0000000e+00 0.0000000e+00 1.1000000e+01 
2.0000000e+00 0.0000000e+00 1.0000000e+01 
4.0000000e+00 0.0000000e+00 1.2000000e+01 
1.1000000e+01 1.0000000e+01 1.4000000e+01 
1.1000000e+01 9.0000000e+00 1.4000000e+01 
1.1000000e+01 8.0000000e+00 1.4000000e+01 
0.0000000e+00 0.0000000e+00 9.0000000e+00 
5.0000000e+00 0.0000000e+00 1.4000000e+01 
1.0000000e+01 5.0000000e+00 1.4000000e+01 
3.0000000e+00 0.0000000e+00 1.0000000e+01 
4.0000000e+00 0.0000000e+00 1.1000000e+01 
1.0000000e+00 0.0000000e+00 9.0000000e+00 
5.0000000e+00 0.0000000e+00 1.3000000e+01 
8.0000000e+00 2.0000000e+00 1.4000000e+01 
2.0000000e+00 0.0000000e+00 9.0000000e+00 
5.0000000e+00 0.0000000e+00 1.2000000e+01 
1.1000000e+01 7.0000000e+00 1.4000000e+01 
7.0000000e+00 1.0000000e+00 1.4000000e+01 
9.0000000e+00 3.0000000e+00 1.4000000e+01 
4.0000000e+00 0.0000000e+00 1.0000000e+01 
3.0000000e+00 0.0000000e+00 9.0000000e+00 
5.0000000e+00 0.0000000e+00 1.1000000e+01 
1.0000000e+01 4.0000000e+00 1.4000000e+01 
0.0000000e+00 0.0000000e+00 8.0000000e+00 
6.0000000e+00 0.0000000e+00 1.4000000e+01 
1.1000000e+01 6.0000000e+00 1.4000000e+01 
1.0000000e+00 0.0000000e+00 8.0000000e+00 
6.0000000e+00 0.0000000e+00 1.3000000e+01 
2.0000000e+00 0.0000000e+00 8.0000000e+00 
6.0000000e+00 0.0000000e+00 1.2000000e+01 
4.0000000e+00 0.0000000e+00 9.0000000e+00 
5.0000000e+00 0.0000000e+00 1.0000000e+01 
1.2000000e+01 1.0000000e+01 1.4000000e+01 
3.0000000e+00 0.0000000e+00 8.0000000e+00 
6.0000000e+00 0.0000000e+00 1.1000000e+01 
8.0000000e+00 1.0000000e+00 1.4000000e+01 
1.2000000e+01 9.0000000e+00 1.4000000e+01 
9.0000000e+00 2.0000000e+00 1.4000000e+01 
1.1000000e+01 5.0000000e+00 1.4000000e+01 
1.2000000e+01 8.0000000e+00 1.4000000e+01 
1.0000000e+01 3.0000000e+00 1.4000000e+01 
0.0000000e+00 0.0000000e+00 7.0000000e+00 
7.0000000e+00 0.0000000e+00 1.4000000e+01 
1.0000000e+00 0.0000000e+00 7.0000000e+00 
7.0000000e+00 0.0000000e+00 1.3000000e+01 
5.0000000e+00 0.0000000e+00 9.0000000e+00 
4.0000000e+00 0.0000000e+00 8.0000000e+00 
6.0000000e+00 0.0000000e+00 1.0000000e+01 
2.0000000e+00 0.0000000e+00 7.0000000e+00 
7.0000000e+00 0.0000000e+00 1.2000000e+01 
1.2000000e+01 7.0000000e+00 1.4000000e+01 
1.1000000e+01 4.0000000e+00 1.4000000e+01 
3.0000000e+00 0.0000000e+00 7.0000000e+00 
7.0000000e+00 0.0000000e+00 1.1000000e+01 
1.2000000e+01 6.0000000e+00 1.4000000e+01 
5.0000000e+00 0.0000000e+00 8.0000000e+00 
6.0000000e+00 0.0000000e+00 9.0000000e+00 
9.0000000e+00 1.0000000e+00 1.4000000e+01 
0.0000000e+00 0.0000000e+00 6.0000000e+00 
8.0000000e+00 0.0000000e+00 1.4000000e+01 
1.0000000e+01 2.0000000e+00 1.4000000e+01 
4.0000000e+00 0.0000000e+00 7.0000000e+00 
1.0000000e+00 0.0000000e+00 6.0000000e+00 
7.0000000e+00 0.0000000e+00 1.0000000e+01 
8.0000000e+00 0.0000000e+00 1.3000000e+01 
2.0000000e+00 0.0000000e+00 6.0000000e+00 
8.0000000e+00 0.0000000e+00 1.2000000e+01 
1.2000000e+01 5.0000000e+00 1.4000000e+01 
1.3000000e+01 1.0000000e+01 1.4000000e+01 
1.1000000e+01 3.0000000e+00 1.4000000e+01 
1.3000000e+01 9.0000000e+00 1.4000000e+01 
6.0000000e+00 0.0000000e+00 8.0000000e+00 
8.0000000e+00 0.0000000e+00 1.1000000e+01 
3.0000000e+00 0.0000000e+00 6.0000000e+00 
1.3000000e+01 8.0000000e+00 1.4000000e+01 
5.0000000e+00 0.0000000e+00 7.0000000e+00 
7.0000000e+00 0.0000000e+00 9.0000000e+00 
1.3000000e+01 7.0000000e+00 1.4000000e+01 
4.0000000e+00 0.0000000e+00 6.0000000e+00 
8.0000000e+00 0.0000000e+00 1.0000000e+01 
1.2000000e+01 4.0000000e+00 1.4000000e+01 
0.0000000e+00 0.0000000e+00 5.0000000e+00 
9.0000000e+00 0.0000000e+00 1.4000000e+01 
1.0000000e+01 1.0000000e+00 1.4000000e+01 
1.0000000e+00 0.0000000e+00 5.0000000e+00 
9.0000000e+00 0.0000000e+00 1.3000000e+01 
1.1000000e+01 2.0000000e+00 1.4000000e+01 
1.3000000e+01 6.0000000e+00 1.4000000e+01 
6.0000000e+00 0.0000000e+00 7.0000000e+00 
2.0000000e+00 0.0000000e+00 5.0000000e+00 
7.0000000e+00 0.0000000e+00 8.0000000e+00 
9.0000000e+00 0.0000000e+00 1.2000000e+01 
8.0000000e+00 0.0000000e+00 9.0000000e+00 
5.0000000e+00 0.0000000e+00 6.0000000e+00 
3.0000000e+00 0.0000000e+00 5.0000000e+00 
9.0000000e+00 0.0000000e+00 1.1000000e+01 
1.2000000e+01 3.0000000e+00 1.4000000e+01 
1.3000000e+01 5.0000000e+00 1.4000000e+01 
0.0000000e+00 1.0000000e+01 0.0000000e+00 
1.4000000e+01 1.0000000e+01 1.4000000e+01 
0.0000000e+00 9.0000000e+00 0.0000000e+00 
1.0000000e+00 1.0000000e+01 0.0000000e+00 
4.0000000e+00 0.0000000e+00 5.0000000e+00 
9.0000000e+00 0.0000000e+00 1.0000000e+01 
1.4000000e+01 9.0000000e+00 1.4000000e+01 
7.0000000e+00 0.0000000e+00 7.0000000e+00 
1.0000000e+00 9.0000000e+00 0.0000000e+00 
0.0000000e+00 8.0000000e+00 0.0000000e+00 
2.0000000e+00 1.0000000e+01 0.0000000e+00 
0.0000000e+00 0.0000000e+00 4.0000000e+00 
1.0000000e+01 0.0000000e+00 1.4000000e+01 
6.0000000e+00 0.0000000e+00 6.0000000e+00 
[...]
POINT_DATA 3567
FIELD FieldData 7
DISPLACEMENT 3 3567  float
0.0000000e+00 0.0000000e+00 0.0000000e+00 
0.0000000e+00 0.0000000e+00 0.0000000e+00 
9.4531704e-03 -5.3777119e-03 -3.3385602e-04 
6.9829478e-03 -3.0043001e-03 -7.7646401e-04 
0.0000000e+00 0.0000000e+00 0.0000000e+00 
1.6125293e-02 -7.5836462e-03 -2.1193176e-03 
1.4734440e-02 -5.8786313e-03 -3.1299127e-03 
6.9672875e-03 -2.1310373e-03 -1.0092960e-03 
1.4209589e-02 -3.8663950e-03 -3.8577002e-03 
0.0000000e+00 0.0000000e+00 0.0000000e+00 
2.2634689e-02 -8.9729923e-03 -5.6095974e-03 
2.1970590e-02 -6.9443676e-03 -7.1032120e-03 
7.2486967e-03 -1.4383712e-03 -1.2143602e-03 
2.1734283e-02 -4.9712296e-03 -8.3219693e-03 
1.4647060e-02 -2.3781483e-03 -4.5300766e-03 
0.0000000e+00 0.0000000e+00 0.0000000e+00 
2.9360049e-02 -9.5191645e-03 -1.0721332e-02 
2.9028539e-02 -7.5447347e-03 -1.2595600e-02 
7.8408344e-03 -9.0929720e-04 -1.5327347e-03 
2.2374733e-02 -2.8131249e-03 -9.4625609e-03 
1.6496021e-02 -3.4248867e-04 -5.3494491e-03 
2.9081647e-02 -5.4518559e-03 -1.4209427e-02 
0.0000000e+00 0.0000000e+00 0.0000000e+00 
3.6063944e-02 -9.8127279e-03 -1.7308386e-02 
2.4190481e-02 -8.8736652e-04 -1.0683675e-02 
2.9794207e-02 -3.3945814e-03 -1.5715921e-02 
1.3279291e-02 7.4518257e-04 -2.1211458e-03 
3.5963891e-02 -7.8274044e-03 -1.9462199e-02 
2.0506674e-02 1.2976078e-03 -6.4200471e-03 
3.6165499e-02 -5.8163920e-03 -2.1364820e-02 
3.1305916e-02 -1.4218873e-03 -1.7227902e-02 
2.7219013e-02 7.7063193e-04 -1.2049561e-02 
3.6860783e-02 -3.8018837e-03 -2.3130871e-02 
2.3962098e-02 -5.8097902e-03 7.1697815e-04 
4.2767609e-02 -9.9623769e-03 -2.5224707e-02 
2.1416821e-02 2.3615828e-03 -2.9619428e-03 
4.2745421e-02 -8.0197841e-03 -2.7571292e-02 
2.6403875e-02 1.8939501e-03 -7.6519627e-03 
4.3022275e-02 -6.0615072e-03 -2.9671340e-02 
3.3615440e-02 1.7701541e-04 -1.8787999e-02 
3.8127413e-02 -1.9266379e-03 -2.4838834e-02 
3.1047077e-02 1.7159026e-03 -1.3504630e-02 
4.3674010e-02 -4.1307093e-03 -3.1608619e-02 
2.8825199e-02 -2.8954089e-03 1.0840317e-03 
4.9380419e-02 -1.0070608e-02 -3.4346292e-02 
3.9824259e-02 -3.2628510e-04 -2.6515259e-02 
3.0588927e-02 3.1027217e-04 -3.6238356e-03 
4.9400574e-02 -8.1613337e-03 -3.6816677e-02 
3.6120638e-02 1.1749638e-03 -2.0358784e-02 
4.4713489e-02 -2.3051660e-03 -3.3436508e-02 
3.1042902e-02 1.9285459e-03 -8.8499871e-03 
4.9697242e-02 -6.2538650e-03 -3.9042330e-02 
3.3916021e-02 1.4288268e-03 -1.4915512e-02 
5.0292196e-02 -4.3771323e-03 -4.1082912e-02 
4.1714439e-02 9.4534185e-04 -2.8129350e-02 
4.6072159e-02 -6.5888120e-04 -3.5168831e-02 
2.9402626e-02 2.1199959e-03 1.0453887e-03 
5.5896393e-02 -1.0150261e-02 -4.4574819e-02 
3.1353245e-02 1.4990170e-04 -4.2075294e-03 
3.8238834e-02 1.7921597e-03 -2.1842550e-02 
5.5935405e-02 -8.2748930e-03 -4.7116731e-02 
5.1185770e-02 -2.5764160e-03 -4.2973302e-02 
5.6229820e-02 -6.4058366e-03 -4.9414169e-02 
3.1776323e-02 -3.2545816e-04 -9.8598933e-03 
4.7546664e-02 7.6003557e-04 -3.6776326e-02 
5.6777542e-02 -4.5639352e-03 -5.1508233e-02 
3.4863131e-02 1.4053317e-03 -1.6145870e-02 
4.3335525e-02 1.8822347e-03 -2.9601255e-02 
5.2311254e-02 -8.9866545e-04 -4.4717727e-02 
5.7565984e-02 -2.7781955e-03 -5.3420241e-02 
3.9286478e-02 2.0712167e-03 -2.3113498e-02 
2.5953258e-02 5.0881330e-03 7.1771731e-04 
6.2310352e-02 -1.0210575e-02 -5.5834911e-02 
2.3061088e-02 -2.0148902e-03 -4.6814644e-03 
6.2361646e-02 -8.3652826e-03 -5.8410171e-02 
2.8732752e-02 1.1888563e-04 -1.0646359e-02 
4.8940647e-02 2.0269111e-03 -3.8189937e-02 
5.3564544e-02 6.5133453e-04 -4.6287366e-02 
6.2648192e-02 -6.5263081e-03 -6.0740534e-02 
5.8553383e-02 -1.0685075e-03 -5.5147700e-02 
4.4457683e-02 2.8000821e-03 -3.0815207e-02 
3.3920259e-02 1.3647997e-03 -1.7088828e-02 
6.3157590e-02 -4.7098349e-03 -6.2853062e-02 
3.9335733e-02 2.8798935e-03 -2.4025124e-02 
6.3877665e-02 -2.9314386e-03 -6.4759313e-02 
5.4819219e-02 2.1050980e-03 -4.7622094e-02 
0.0000000e+00 0.0000000e+00 0.0000000e+00 
6.8627543e-02 -1.0253181e-02 -6.8069774e-02 
5.0102816e-02 3.2503991e-03 -3.9307643e-02 
5.9670340e-02 5.6122458e-04 -5.6662801e-02 
6.8689161e-02 -8.4349792e-03 -7.0651477e-02 
0.0000000e+00 0.0000000e+00 0.0000000e+00 
1.6884620e-02 4.6156747e-04 -4.7887221e-03 
8.1783225e-03 4.0291406e-04 -2.6789651e-03 
6.8968173e-02 -6.6219210e-03 -7.2987746e-02 
0.0000000e+00 0.0000000e+00 0.0000000e+00 
2.5302420e-02 1.1827257e-03 -1.1210757e-02 
6.2120175e-03 3.5082524e-04 -2.2514221e-03 
1.7395056e-02 1.3490825e-03 -9.1651048e-03 
6.4777275e-02 -1.2028683e-03 -6.6452507e-02 
4.5123103e-02 3.8856625e-03 -3.1624813e-02 
1.2312095e-02 1.2081719e-03 -7.1185383e-03 
0.0000000e+00 0.0000000e+00 0.0000000e+00 
3.2690580e-02 2.6506485e-03 -1.7591528e-02 
6.9450669e-02 -4.8251666e-03 -7.5095246e-02 
4.5708201e-03 2.8484858e-04 -1.9761805e-03 
2.4899486e-02 2.6078915e-03 -1.5478404e-02 
6.0847703e-02 2.1403347e-03 -5.7913904e-02 
9.3416925e-03 9.8624625e-04 -6.1977780e-03 
1.8798982e-02 2.3006389e-03 -1.3557414e-02 
5.6000719e-02 3.5531532e-03 -4.8635408e-02 
0.0000000e+00 0.0000000e+00 0.0000000e+00 
3.9408570e-02 4.1216986e-03 -2.4380708e-02 
7.0125396e-02 -3.0548116e-03 -7.6978712e-02 
5.1057149e-02 4.6255894e-03 -4.0000462e-02 
3.3652331e-03 2.1525214e-04 -1.7937320e-03 
3.1596456e-02 3.8998495e-03 -2.2425335e-02 
6.5814042e-02 4.7850863e-04 -6.7906707e-02 
1.4157990e-02 1.8953471e-03 -1.1936199e-02 
6.8213713e-03 7.5696049e-04 -5.5700272e-03 
2.4790113e-02 3.4181727e-03 -2.0469008e-02 
7.4854412e-02 -1.0279545e-02 -8.1236930e-02 
7.4925500e-02 -8.4864580e-03 -8.3806879e-02 
7.5200222e-02 -6.6966331e-03 -8.6131083e-02 
0.0000000e+00 0.0000000e+00 0.0000000e+00 
4.5725084e-02 5.3318330e-03 -3.1846585e-02 
7.0970720e-02 -1.3160852e-03 -7.8628955e-02 
1.0428048e-02 1.4750709e-03 -1.0921681e-02 
1.9054406e-02 2.8402156e-03 -1.8804175e-02 
2.2783353e-03 1.5103574e-04 -1.6706281e-03 
3.7795079e-02 4.9895084e-03 -2.9977661e-02 
6.2037681e-02 3.7170058e-03 -5.8829958e-02 
4.6319010e-03 5.3969922e-04 -5.1801745e-03 
3.0396269e-02 4.3983481e-03 -2.8137100e-02 
7.5664878e-02 -4.9182560e-03 -8.8218695e-02 
5.7121734e-02 5.0864460e-03 -4.9221556e-02 
6.6944569e-02 2.1300502e-03 -6.9078388e-02 
1.4063039e-02 2.2429260e-03 -1.7496755e-02 
7.0679996e-03 1.0697623e-03 -1.0231875e-02 
2.3730234e-02 3.6994473e-03 -2.6463429e-02 
7.1958483e-02 3.9324847e-04 -8.0022542e-02 
0.0000000e+00 0.0000000e+00 0.0000000e+00 
5.1979397e-02 6.1897409e-03 -4.0117848e-02 
7.6310788e-02 -3.1574618e-03 -9.0069859e-02 
1.2717525e-03 9.1949994e-05 -1.5936897e-03 
4.3651526e-02 5.7968409e-03 -3.8307527e-02 
2.5817722e-03 3.3498091e-04 -4.9453604e-03 
3.5682521e-02 5.1634179e-03 -3.6564499e-02 
9.5738867e-03 1.6574826e-03 -1.6603100e-02 
1.7679934e-02 2.9683707e-03 -2.5108766e-02 
8.0996311e-02 -1.0291281e-02 -9.5304559e-02 
3.9470217e-03 6.8113520e-04 -9.8132628e-03 
2.8189164e-02 4.4058811e-03 -3.4967797e-02 
6.3244586e-02 5.3513904e-03 -5.9327897e-02 
8.1076780e-02 -8.5217572e-03 -9.7851093e-02 
6.8137029e-02 3.7832182e-03 -6.9910541e-02 
7.7122329e-02 -1.4172774e-03 -9.1674325e-02 
8.1350371e-02 -6.7539843e-03 -1.0015197e-01 
7.3060737e-02 2.0854607e-03 -8.1123406e-02 
0.0000000e+00 0.0000000e+00 0.0000000e+00 
5.8189853e-02 6.7435455e-03 -4.9266225e-02 
3.0237866e-04 3.4594849e-05 -1.5616122e-03 
4.9325602e-02 6.3367107e-03 -4.7495397e-02 
1.2073007e-02 2.2395172e-03 -2.4092967e-02 
5.3508181e-03 1.0882754e-03 -1.6027416e-02 
2.1165325e-02 3.5967474e-03 -3.3623015e-02 
6.1523137e-04 1.3396941e-04 -4.8368130e-03 
4.0720762e-02 5.7071052e-03 -4.5831934e-02 
8.1804574e-02 -4.9936980e-03 -1.0221108e-01 
7.8080383e-02 3.0464135e-04 -9.3011443e-02 
9.4475619e-04 2.9709400e-04 -9.6087659e-03 
3.2438921e-02 4.9420829e-03 -4.4318842e-02 
8.2432878e-02 -3.2450518e-03 -1.0402563e-01 
6.7690143e-03 1.5220915e-03 -2.3425900e-02 
1.4525451e-02 2.7748002e-03 -3.2590871e-02 
6.9394248e-02 5.4734300e-03 -7.0339530e-02 
0.0000000e+00 0.0000000e+00 0.0000000e+00 
6.4399005e-02 7.0624105e-03 -5.9323992e-02 
7.4254466e-02 3.7797076e-03 -8.1886534e-02 
1.2903971e-03 5.2419050e-04 -1.5736278e-02 
-6.4780764e-04 -2.6073020e-05 -1.5719682e-03 
2.4506631e-02 4.1067336e-03 -4.3032170e-02 
5.4876002e-02 6.6623965e-03 -5.7580615e-02 
-1.3141684e-03 -7.7557212e-05 -4.8418421e-03 
4.5581778e-02 6.0616112e-03 -5.5982181e-02 
8.3224021e-02 -1.5097022e-03 -1.0558518e-01 
8.7057606e-02 -1.0289683e-02 -1.1024858e-01 
7.9165940e-02 2.0162432e-03 -9.4051716e-02 
8.7147358e-02 -8.5427489e-03 -1.1276482e-01 
8.1614888e-03 1.9562765e-03 -3.1883185e-02 
3.6510704e-02 5.3228708e-03 -5.4546998e-02 
-1.9982051e-03 -1.0263528e-04 -9.5957072e-03 
8.7422593e-02 -6.7963283e-03 -1.1503595e-01 
1.6393239e-03 8.1040257e-04 -2.3073441e-02 
1.6885144e-02 3.2424240e-03 -4.2023359e-02 
8.7871814e-02 -5.0545390e-03 -1.1706230e-01 
-2.6948755e-03 -5.4565296e-05 -1.5701426e-02 
2.7703834e-02 4.5010486e-03 -5.3327934e-02 
8.4164575e-02 2.1406157e-04 -1.0687190e-01 
0.0000000e+00 0.0000000e+00 0.0000000e+00 
7.0600625e-02 7.2144567e-03 -7.0305048e-02 
7.5543084e-02 5.4990989e-03 -8.2263811e-02 
-1.5946350e-03 -9.7134738e-05 -1.6252257e-03 
6.0343615e-02 6.8310597e-03 -6.8584307e-02 
8.0361548e-02 3.7300979e-03 -9.4759951e-02 
8.8490362e-02 -3.3202042e-03 -1.1883932e-01 
1.9781745e-03 1.1438693e-03 -3.1503336e-02 
-3.2374074e-03 -3.1924464e-04 -4.9573295e-03 
9.5060919e-03 2.3722730e-03 -4.1322872e-02 
5.0308584e-02 6.2707612e-03 -6.7036689e-02 
1.9143422e-02 3.6370055e-03 -5.2367772e-02 
-3.4004202e-03 9.1225257e-05 -2.3021251e-02 
-4.9323313e-03 -5.4468654e-04 -9.7676530e-03 
4.0438794e-02 5.5774586e-03 -6.5669162e-02 
8.5241162e-02 1.9316959e-03 -1.0786185e-01 
8.9270023e-02 -1.5944041e-03 -1.2035698e-01 
0.0000000e+00 0.0000000e+00 0.0000000e+00 
9.3041385e-02 -1.0275846e-02 -1.2605042e-01 
0.0000000e+00 0.0000000e+00 0.0000000e+00 
-9.6458766e-03 5.7719631e-03 -2.9538331e-04 
-6.6688336e-03 -6.7191508e-04 -1.5916072e-02 
3.0772374e-02 4.7956003e-03 -6.4516151e-02 
9.3140462e-02 -8.5507909e-03 -1.2853286e-01 
2.2915119e-03 1.5079548e-03 -4.0939994e-02 
-6.6365816e-03 3.4021693e-03 -6.7123948e-04 
0.0000000e+00 0.0000000e+00 0.0000000e+00 
-1.6259967e-02 8.8490600e-03 -1.8837772e-03 
0.0000000e+00 0.0000000e+00 0.0000000e+00 
7.6787255e-02 7.2531980e-03 -8.2211916e-02 
-4.1129518e-03 3.3430389e-04 -3.1441228e-02 
1.0785266e-02 2.7586648e-03 -5.1695810e-02 
9.3419460e-02 -6.8253543e-03 -1.3077120e-01 
6.5745684e-02 6.8913440e-03 -8.0511171e-02 
-6.2864804e-03 2.6257789e-03 -8.4754323e-04 
-1.3989131e-02 7.2462210e-03 -2.7384852e-03 
-2.5542870e-03 -1.8944496e-04 -1.7218258e-03 
8.1673024e-02 5.4615319e-03 -9.5099948e-02 
5.4932554e-02 6.3758500e-03 -7.9004939e-02 
-1.2758352e-02 5.4396715e-03 -3.2935185e-03 
-5.1851865e-03 -6.1860747e-04 -5.1890140e-03 
0.0000000e+00 0.0000000e+00 0.0000000e+00 
-2.2435655e-02 1.1364921e-02 -5.0417474e-03 
9.0201180e-02 1.2414455e-04 -1.2160004e-01 
9.3867735e-02 -5.1024871e-03 -1.3276347e-01 
-6.0430503e-03 2.0532611e-03 -9.5998575e-04 
-2.0718290e-02 9.5076066e-03 -6.3144521e-03 
-8.4257789e-03 -6.4943936e-04 -2.3260901e-02 
2.1301545e-02 3.9631198e-03 -6.3610502e-02 
8.6440318e-02 3.6515722e-03 -1.0852767e-01 
-1.2379135e-02 4.2809172e-03 -3.6991868e-03 
-1.9569282e-02 7.7886120e-03 -7.2686976e-03 
-7.9086124e-03 -1.0610849e-03 -1.0135219e-02 
4.4250423e-02 5.7372748e-03 -7.7693534e-02 
0.0000000e+00 0.0000000e+00 0.0000000e+00 
-2.8607954e-02 1.3045366e-02 -9.7614393e-03 
9.4482030e-02 -3.3841923e-03 -1.3450420e-01 
2.5711488e-03 1.8851557e-03 -5.1329514e-02 
-5.9795566e-03 1.6063435e-03 -1.0592218e-03 
-2.7246588e-02 1.1259951e-02 -1.1387534e-02 
-4.8327249e-03 6.5650357e-04 -4.0878397e-02 
-1.8899152e-02 6.1737526e-03 -8.0387692e-03 
-1.2189798e-02 3.3161674e-03 -4.0605770e-03 
-2.6212345e-02 9.4383966e-03 -1.2702978e-02 
-1.0693970e-02 -1.3498460e-03 -1.6387126e-02 
3.3731301e-02 5.0108592e-03 -7.6599535e-02 
-1.0186382e-02 -4.7409099e-04 -3.1693756e-02 
1.1996209e-02 3.1100487e-03 -6.2978539e-02 
9.1274271e-02 1.8391879e-03 -1.2254920e-01 
0.0000000e+00 0.0000000e+00 0.0000000e+00 
-3.4692064e-02 1.4330521e-02 -1.5964846e-02 
0.0000000e+00 0.0000000e+00 0.0000000e+00 
8.2947552e-02 7.2178662e-03 -9.5040426e-02 
-1.8645178e-02 4.8227383e-03 -8.7410162e-03 
-2.5561168e-02 7.7195023e-03 -1.3826455e-02 
9.5256335e-02 -1.6711915e-03 -1.3598406e-01 
7.1090771e-02 6.8802016e-03 -9.3358691e-02 
-5.9754264e-03 1.2189227e-03 -1.1689653e-03 
-3.3646007e-02 1.2533561e-02 -1.7878852e-02 
-3.5454147e-03 -3.2138094e-04 -1.8629119e-03 
5.9473169e-02 6.4103661e-03 -9.1886568e-02 
9.8949924e-02 -1.0250500e-02 -1.4269532e-01 
-1.2175290e-02 2.4735687e-03 -4.4462844e-03 
-3.2779489e-02 1.0708259e-02 -1.9498056e-02 
-7.2085003e-03 -1.0146553e-03 -5.5563559e-03 
-1.3508673e-02 -1.4172569e-03 -2.3797629e-02 
2.3369065e-02 4.2303311e-03 -7.5746845e-02 
8.7770548e-02 5.3844140e-03 -1.0884211e-01 
9.9058400e-02 -8.5468315e-03 -1.4514279e-01 
-2.5229347e-02 6.0861313e-03 -1.4866616e-02 
-5.5618620e-03 1.0320285e-03 -5.1275867e-02 
9.9342758e-02 -6.8421277e-03 -1.4734758e-01 
4.7967495e-02 5.8299199e-03 -9.0621555e-02 
2.8120173e-03 2.2603782e-03 -6.2637839e-02 
-1.8599111e-02 3.5801428e-03 -9.4684451e-03 
-3.2184662e-02 8.8941442e-03 -2.0924702e-02 
-1.0986036e-02 -1.6834492e-03 -1.0722074e-02 
-1.1937831e-02 -1.7269894e-04 -4.1135927e-02 
0.0000000e+00 0.0000000e+00 0.0000000e+00 
-4.0788712e-02 1.5299260e-02 -2.3549773e-02 
9.6183694e-02 3.7433146e-05 -1.3719015e-01 
-6.0306711e-03 8.5559691e-04 -1.3102649e-03 
-3.9964670e-02 1.3506532e-02 -2.5689256e-02 
9.2478783e-02 3.5565694e-03 -1.2318319e-01 
9.9793008e-02 -5.1385400e-03 -1.4930632e-01 
-1.2276517e-02 1.6725822e-03 -4.9145039e-03 
-3.9260650e-02 1.1673839e-02 -2.7549423e-02 
1.3141652e-02 3.4255146e-03 -7.5156926e-02 
-1.6313757e-02 -1.2722202e-03 -3.2259583e-02 
3.6598204e-02 5.1666325e-03 -8.9577970e-02 
-2.5189993e-02 4.5521690e-03 -1.5914719e-02 
-3.1883476e-02 7.1314167e-03 -2.2251430e-02 
-1.4852646e-02 -2.0941435e-03 -1.7142321e-02 
-1.8754255e-02 2.3792815e-03 -1.0297667e-02 
-3.8764791e-02 9.8287352e-03 -2.9215288e-02 
1.0040696e-01 -3.4375035e-03 -1.5101321e-01 
0.0000000e+00 0.0000000e+00 0.0000000e+00 
8.9071426e-02 7.1358545e-03 -1.0878237e-01 
0.0000000e+00 0.0000000e+00 0.0000000e+00 
-4.6890234e-02 1.6060399e-02 -3.2412398e-02 
-4.6304785e-03 -5.2758299e-04 -2.0541332e-03 
-1.3675413e-02 2.1676439e-04 -5.1537034e-02 
-6.3021548e-03 1.4354214e-03 -6.2598561e-02 
7.6381897e-02 6.8240853e-03 -1.0711924e-01 
9.7257241e-02 1.7443500e-03 -1.3810696e-01 
2.5357901e-02 4.4496731e-03 -8.8772881e-02 
-6.1447243e-03 4.9218130e-04 -1.5119375e-03 
-3.1856546e-02 5.4003647e-03 -2.3553043e-02 
-4.6233313e-02 1.4268602e-02 -3.4720830e-02 
-1.8726206e-02 -2.1943354e-03 -2.4640213e-02 
-2.5388495e-02 3.0404613e-03 -1.7038692e-02 
-3.8518036e-02 7.9859662e-03 -3.0760486e-02 
-9.3724922e-03 -1.5555495e-03 -6.0849775e-03 
6.3943085e-02 6.3993169e-03 -1.0567614e-01 
3.0142326e-03 2.6226106e-03 -7.4845987e-02 
-1.2519779e-02 8.4802620e-04 -5.5300486e-03 
-4.5669621e-02 1.2439941e-02 -3.6762087e-02 
-1.9089529e-02 -9.6048561e-04 -4.1710501e-02 
1.0118022e-01 -1.7395263e-03 -1.5245978e-01 
9.3825834e-02 5.2839887e-03 -1.2348145e-01 
-1.4299071e-02 -2.4143593e-03 -1.1597519e-02 
5.1605941e-02 5.8771949e-03 -1.0444945e-01 
-1.9111063e-02 1.1428932e-03 -1.1289854e-02 
-4.5277577e-02 1.0583089e-02 -3.8604205e-02 
1.0478487e-01 -1.0214118e-02 -1.6017113e-01 
1.4228123e-02 3.7070823e-03 -8.8222942e-02 
-3.2107250e-02 3.6813064e-03 -2.4874995e-02 
-3.8537885e-02 6.1526029e-03 -3.2239110e-02 
-2.2564797e-02 -2.0286760e-03 -3.3139263e-02 
1.0490286e-01 -8.5314695e-03 -1.6258399e-01 
1.0519375e-01 -6.8473156e-03 -1.6475594e-01 
0.0000000e+00 0.0000000e+00 0.0000000e+00 
-5.2997762e-02 1.6677182e-02 -4.2458102e-02 
-1.9254064e-02 -2.8609958e-03 -1.8204935e-02 
3.9388175e-02 5.2796931e-03 -1.0344820e-01 
9.8468749e-02 3.4537448e-03 -1.3871792e-01 
1.0210773e-01 -4.3928248e-05 -1.5363516e-01 
-6.3729462e-03 9.9225769e-05 -1.8252961e-03 
-2.5856201e-02 1.4869571e-03 -1.8267596e-02 
-4.5104367e-02 8.7107863e-03 -4.0302428e-02 
-5.2460526e-02 1.4889588e-02 -4.4886777e-02 
-1.5399245e-02 6.5756542e-04 -6.2864255e-02 
-1.2948504e-02 -6.3542797e-05 -6.3647130e-03 
-5.2013240e-02 1.3069339e-02 -4.7056787e-02 
-2.1828317e-02 -5.3600559e-04 -5.2110367e-02 
-7.0551543e-03 1.8459290e-03 -7.4824266e-02 
1.0564810e-01 -5.1632447e-03 -1.6668285e-01 
-3.8829589e-02 4.3139007e-03 -3.3674005e-02 
0.0000000e+00 0.0000000e+00 0.0000000e+00 
9.5150338e-02 7.0258478e-03 -1.2342722e-01 
-1.9774058e-02 -2.3146760e-04 -1.2455184e-02 
-5.1717735e-02 1.1217479e-02 -4.9020596e-02 
-2.4166517e-02 -2.9163885e-03 -2.5796203e-02 
2.7279660e-02 4.6316264e-03 -1.0268425e-01 
3.1802238e-03 2.9651375e-03 -8.7941816e-02 
-3.2642375e-02 1.9326228e-03 -2.6213898e-02 
-4.5176071e-02 6.8277824e-03 -4.1892058e-02 
-5.8593931e-03 -8.7649474e-04 -2.2587716e-03 
-2.6348534e-02 -1.6707694e-03 -4.2596804e-02 
8.1619609e-02 6.7412431e-03 -1.2178260e-01 
1.0626451e-01 -3.4802991e-03 -1.6835897e-01 
-1.1962356e-02 -2.2305529e-03 -6.9377619e-03 
6.8350170e-02 6.3604533e-03 -1.2036488e-01 
1.0318462e-01 1.6512326e-03 -1.5452689e-01 
-2.6647710e-02 -1.5797728e-04 -1.9548495e-02 
-5.1618630e-02 9.3408523e-03 -5.0817653e-02 
0.0000000e+00 0.0000000e+00 0.0000000e+00 
-5.9099763e-02 1.7196716e-02 -5.3605783e-02 
9.9831557e-02 5.1712935e-03 -1.3900748e-01 
-6.7723585e-03 -3.6500994e-04 -2.3461680e-03 
-5.8648810e-02 1.5415951e-02 -5.6114605e-02 
-1.8038120e-02 -3.1345473e-03 -1.2788586e-02 
5.5177311e-02 5.8952484e-03 -1.1917026e-01 
-2.9006825e-02 -2.6784003e-03 -3.4326522e-02 
1.5263263e-02 3.9583868e-03 -1.0217015e-01 
1.0703977e-01 -1.7988331e-03 -1.6977674e-01 
-1.3878326e-02 -1.2648128e-03 -7.3962638e-03 
-3.9407472e-02 2.4568997e-03 -3.5041169e-02 
-4.5508619e-02 4.9353030e-03 -4.3379142e-02 
-5.8294217e-02 1.3608107e-02 -5.8370424e-02 
-2.4530091e-02 -4.6513670e-05 -6.3433908e-02 
-1.7111247e-02 1.1200481e-03 -7.5096693e-02 
-7.8209370e-03 2.2488911e-03 -8.7939057e-02 
-3.3495859e-02 1.2706958e-04 -2.7486839e-02 
-5.1744748e-02 7.4466054e-03 -5.2468708e-02 
-2.4013358e-02 -3.5020600e-03 -1.9582079e-02 
-3.0072806e-02 -1.1907828e-03 -5.2989830e-02 
4.2113142e-02 5.3631946e-03 -1.1820433e-01 
-2.0932011e-02 -1.7808088e-03 -1.3627186e-02 
-5.8082496e-02 1.1769870e-02 -6.0412284e-02 
1.1054746e-01 -1.0166985e-02 -1.7846743e-01 
1.0440442e-01 3.3490386e-03 -1.5512207e-01 
1.1067507e-01 -8.5050779e-03 -1.8084701e-01 
1.0797026e-01 -1.1833012e-04 -1.7092705e-01 
3.3139793e-03 3.2848866e-03 -1.0191692e-01 
-2.7875129e-02 -1.9177951e-03 -2.0672230e-02 
-5.8051702e-02 9.9053133e-03 -6.2267075e-02 
-3.3768097e-02 -2.2467668e-03 -4.3784790e-02 
1.1097337e-01 -6.8413257e-03 -1.8298770e-01 
-4.6110676e-02 3.0301162e-03 -4.4730528e-02 
-2.9886402e-02 -3.4524677e-03 -2.7250019e-02 
2.9144603e-02 4.7852164e-03 -1.1747526e-01 
0.0000000e+00 0.0000000e+00 0.0000000e+00 
-6.5184560e-02 1.7650144e-02 -6.5788479e-02 
-4.0279795e-02 5.7166768e-04 -3.6253393e-02 
-5.2113061e-02 5.5394276e-03 -5.3969391e-02 
1.0117756e-01 6.9004098e-03 -1.3896321e-01 
-8.3794965e-03 -1.2568165e-03 -2.8375328e-03 
-6.4795478e-02 1.5879148e-02 -6.8345764e-02 
8.6803285e-02 6.6439776e-03 -1.3733717e-01 
1.1143334e-01 -5.1769173e-03 -1.8488511e-01 
-1.5689730e-02 -2.6423324e-03 -8.0745098e-03 
-6.4513521e-02 1.4086292e-02 -7.0653836e-02 
-2.7198201e-02 4.7148883e-04 -7.5663471e-02 
7.2699314e-02 6.3059633e-03 -1.3594223e-01 
-1.8813648e-02 1.5831081e-03 -8.8219905e-02 
-3.4717972e-02 -1.7351151e-03 -2.8501777e-02 
-5.8228548e-02 8.0206286e-03 -6.3945307e-02 
-3.3740378e-02 -6.4432171e-04 -6.4302311e-02 
1.0905259e-01 1.5626611e-03 -1.7179989e-01 
-2.2624260e-02 -3.4549738e-03 -1.4269731e-02 
-6.4371483e-02 1.2266774e-02 -7.2740733e-02 
-3.5663906e-02 -3.1208852e-03 -3.5803072e-02 
1.6254556e-02 4.1837264e-03 -1.1699227e-01 
1.1205421e-01 -3.5126134e-03 -1.8653375e-01 
5.8689731e-02 5.8955553e-03 -1.3477490e-01 
1.0578226e-01 5.0537269e-03 -1.5540887e-01 
-3.8453862e-02 -1.7012921e-03 -5.4165266e-02 